! Touchstone file exported from HFSS 2024.1.0
!        File:           C:/Users/bglau/Documents/Ansoft/Distributive Filter.aedt
!        Generated:      04:29:35 PM Apr 28, 2025
!        Design:         HFSSDesign1
!        Project:        Distributive Filter
!        Setup:          Setup2
!        Solution:       Sweep
!
! Variables:
!        CopperThickness = 0.035mm
!        TL50 = 3.31558mm
!        labmda = 186.875mm
!
# GHz S MA R 50.000000
! Terminal data exported
! Port[1] = 1
! Port[2] = 2
0.5                            0.961103442350509 -72.4058994030774 0.148777720664557 -75.1554765548493 0.148777720664556 -75.1554765548493 0.981947331125726 102.204418393891 
! Gamma         0                0                0                0                
! Port Impedance         50               0                50               0                
0.50825                        0.960589859852634 -77.4313817551654 0.152416174748509 -78.4945922230172 0.15241617474851 -78.4945922230172 0.981191501709177 100.558528508125 
! Gamma         0                0                0                0                
! Port Impedance         50               0                50               0                
0.5165                         0.960085438089134 -82.3720453180937 0.156114287580241 -81.8022562946822 0.156114287580241 -81.8022562946822 0.980399393662025 98.8941270873076 
! Gamma         0                0                0                0                
! Port Impedance         50               0                50               0                
0.52475                        0.959583034191518 -87.2257884073231 0.159887981510879 -85.0781773803968 0.159887981510879 -85.0781773803966 0.979566979893278 97.2099104823181 
! Gamma         0                0                0                0                
! Port Impedance         50               0                50               0                
0.533                          0.959074897456978 -91.9914149074993 0.163754600287508 -88.3225472301884 0.163754600287508 -88.3225472301881 0.978689720021592 95.5044816237293 
! Gamma         0                0                0                0                
! Port Impedance         50               0                50               0                
0.54125                        0.95855270306304 -96.6685725828422 0.16773287273416 -91.5360170112402 0.16773287273416 -91.5360170112399 0.977762490024323 93.7763393494784 
! Gamma         0                0                0                0                
! Port Impedance         50               0                50               0                
0.5495                         0.958007562014631 -101.257684927228 0.1718429025351  -94.7196713630144 0.171842902535101 -94.7196713630141 0.976779500853257 92.0238664094074 
! Gamma         0                0                0                0                
! Port Impedance         50               0                50               0                
0.55775                        0.957430004522784 -105.759879932386 0.176106187786009 -97.8750019070791 0.176106187786009 -97.8750019070789 0.975734203929196 90.2453159341733 
! Gamma         0                0                0                0                
! Port Impedance         50               0                50               0                
0.566                          0.956809934524528 -110.176918679715 0.180545673071183 -101.00388168858 0.180545673071183 -101.00388168858 0.97461918099069 88.4387961204164 
! Gamma         0                0                0                0                
! Port Impedance         50               0                50               0                
0.57425                        0.956136553249541 -114.511126148813 0.185185836141801 -104.108541812696 0.185185836141802 -104.108541812696 0.973426015237507 86.6022528416436 
! Gamma         0                0                0                0                
! Port Impedance         50               0                50               0                
0.5825                         0.955398249605357 -118.76532612671 0.190052810820948 -107.191551332403 0.190052810820948 -107.191551332403 0.972145140054159 84.7334498436647 
! Gamma         0                0                0                0                
! Port Impedance         50               0                50               0                
0.59075                        0.954582454687182 -122.942781626909 0.195174547530425 -110.255801258121 0.195174547530426 -110.255801258121 0.970765660794433 82.8299461229285 
! Gamma         0                0                0                0                
! Port Impedance         50               0                50               0                
0.599                          0.953675456921494 -127.047141805947 0.20058101278935 -113.304493404979 0.200581012789351 -113.304493404979 0.969275144119295 80.8890700137375 
! Gamma         0                0                0                0                
! Port Impedance         50               0                50               0                
0.60725                        0.952662173220911 -131.082396006853 0.206304429127801 -116.341134675196 0.206304429127802 -116.341134675196 0.967659368164058 78.9078894236009 
! Gamma         0                0                0                0                
! Port Impedance         50               0                50               0                
0.6155                         0.951525870046818 -135.052835265037 0.212379557031148 -119.369537293454 0.212379557031149 -119.369537293454 0.965902025312974 76.8831775519722 
! Gamma         0                0                0                0                
! Port Impedance         50               0                50               0                
0.62375                        0.950247826415874 -138.963021377857 0.21884402070901 -122.393825472004 0.21884402070901 -122.393825472004 0.963984367514937 74.8113733027498 
! Gamma         0                0                0                0                
! Port Impedance         50               0                50               0                
0.632                          0.94880692859875 -142.817763454949 0.225738679575785 -125.418448977358 0.225738679575786 -125.418448977358 0.961884781804138 72.6885354509348 
! Gamma         0                0                0                0                
! Port Impedance         50               0                50               0                
0.64025                        0.947179183476722 -146.622101718829 0.233108047217919 -128.448204098374 0.23310804721792 -128.448204098374 0.959578280900836 70.5102894437177 
! Gamma         0                0                0                0                
! Port Impedance         50               0                50               0                
0.6485                         0.945337134158237 -150.381298197177 0.241000759144467 -131.488262571478 0.241000759144467 -131.488262571478 0.95703589035239 68.2717655000692 
! Gamma         0                0                0                0                
! Port Impedance         50               0                50               0                
0.65675                        0.943249157413054 -154.10083381841 0.249470089545027 -134.544209096447 0.249470089545028 -134.544209096447 0.954223909514128 65.9675264138128 
! Gamma         0                0                0                0                
! Port Impedance         50               0                50               0                
0.665                          0.940878617651267 -157.786411263285 0.258574515288647 -137.62208816679 0.258574515288648 -137.62208816679 0.951103018641913 63.591483155387  
! Gamma         0                0                0                0                
! Port Impedance         50               0                50               0                
0.67325                        0.93818284646842 -161.443962701646 0.268378322021965 -140.728461029795 0.268378322021966 -140.728461029795 0.947627198366794 61.1367959984871 
! Gamma         0                0                0                0                
! Port Impedance         50               0                50               0                
0.6815                         0.935111910157081 -165.079661205431 0.278952241790914 -143.870473663738 0.278952241790914 -143.870473663738 0.943742420791451 58.5957584603942 
! Gamma         0                0                0                0                
! Port Impedance         50               0                50               0                
0.68975                        0.931607120128137 -168.699934106822 0.290374103147671 -147.055936684532 0.290374103147671 -147.055936684532 0.939385063449255 55.9596608298603 
! Gamma         0                0                0                0                
! Port Impedance         50               0                50               0                
0.698                          0.927599233203207 -172.311475762212 0.30272946182614 -150.293418026002 0.30272946182614 -150.293418026002 0.934479988693317 53.2186294553849 
! Gamma         0                0                0                0                
! Port Impedance         50               0                50               0                
0.70625                        0.923006280977678 -175.9212559393  0.316112160811896 -153.592349007173 0.316112160811896 -153.592349007173 0.928938222461695 50.3614372725716 
! Gamma         0                0                0                0                
! Port Impedance         50               0                50               0                
0.7145                         0.917730961425743 -179.536518144739 0.330624740259503 -156.963143898994 0.330624740259503 -156.963143898994 0.922654159295136 47.3752802570852 
! Gamma         0                0                0                0                
! Port Impedance         50               0                50               0                
0.72275                        0.911657524465554 176.835240674767 0.346378576490693 -160.417332168856 0.346378576490692 -160.417332168856 0.915502217796598 44.2455135958944 
! Gamma         0                0                0                0                
! Port Impedance         50               0                50               0                
0.731                          0.904648091392216 173.186321981422 0.363493570322402 -163.967700970133 0.363493570322402 -163.967700970133 0.90733287748742 40.9553403663239 
! Gamma         0                0                0                0                
! Port Impedance         50               0                50               0                
0.73925                        0.896538374636755 169.508928515966 0.382097122079283 -167.628442798643 0.382097122079283 -167.628442798642 0.897968052967826 37.4854443718136 
! Gamma         0                0                0                0                
! Port Impedance         50               0                50               0                
0.7475                         0.887132823746847 165.795347449147 0.402322016862674 -171.415299049569 0.402322016862674 -171.415299049569 0.887195818991758 33.8135574141877 
! Gamma         0                0                0                0                
! Port Impedance         50               0                50               0                
0.75575                        0.876199339263524 162.038257630708 0.424302692542949 -175.345683781035 0.424302692542949 -175.345683781035 0.874764614018012 29.9139494316657 
! Gamma         0                0                0                0                
! Port Impedance         50               0                50               0                
0.764                          0.863463904782537 158.231226222354 0.448169172006947 -179.438762431659 0.448169172006948 -179.438762431658 0.860377256531498 25.7568269662943 
! Gamma         0                0                0                0                
! Port Impedance         50               0                50               0                
0.77225                        0.848605843063353 154.369491342765 0.474037718958857 176.284553472943 0.474037718958858 176.284553472944 0.843685462031586 21.3076198697819 
! Gamma         0                0                0                0                
! Port Impedance         50               0                50               0                
0.7805                         0.831254979389159 150.451172432429 0.501997056024154 171.80175335993  0.501997056024155 171.801753359931 0.824286123703655 16.5261247653898 
! Gamma         0                0                0                0                
! Port Impedance         50               0                50               0                
0.78875                        0.810992886431436 146.47911354149  0.532088845154765 167.089098138029 0.532088845154767 167.089098138029 0.801721508143014 11.3654497169857 
! Gamma         0                0                0                0                
! Port Impedance         50               0                50               0                
0.797                          0.787361678045945 142.463651510389 0.564281233781005 162.122323416187 0.564281233781008 162.122323416187 0.77548680797558 5.77065399714775 
! Gamma         0                0                0                0                
! Port Impedance         50               0                50               0                
0.80525                        0.759885543951361 138.426714280019 0.598434893456907 156.877809592813 0.59843489345691 156.877809592813 0.74505021954183 -0.323126954500078 
! Gamma         0                0                0                0                
! Port Impedance         50               0                50               0                
0.8135                         0.728112230458656 134.407791566861 0.634262529140067 151.334362269225 0.634262529140071 151.334362269225 0.709892753219638 -6.99348757297513 
! Gamma         0                0                0                0                
! Port Impedance         50               0                50               0                
0.82175                        0.691683482533318 130.472461511188 0.671285778010376 145.475716280059 0.671285778010381 145.475716280059 0.669576914694849 -14.3352987527843 
! Gamma         0                0                0                0                
! Port Impedance         50               0                50               0                
0.83                           0.650444040917286 126.724238559175 0.708797976871379 139.293772804143 0.708797976871383 139.293772804143 0.623854407842577 -22.4685140194629 
! Gamma         0                0                0                0                
! Port Impedance         50               0                50               0                
0.83825                        0.604596544614853 123.320337978846 0.745846854466084 132.792366663805 0.745846854466089 132.792366663805 0.572822146727377 -31.551924820609 
! Gamma         0                0                0                0                
! Port Impedance         50               0                50               0                
0.8465                         0.554902817277297 120.490958628467 0.781255550638816 125.991032764409 0.781255550638822 125.991032764409 0.517133031189175 -41.8071381023724 
! Gamma         0                0                0                0                
! Port Impedance         50               0                50               0                
0.85475                        0.502918775740602 118.558198088836 0.813699235659581 118.927863756829 0.813699235659586 118.927863756829 0.45826559485392 -53.5578464788143 
! Gamma         0                0                0                0                
! Port Impedance         50               0                50               0                
0.863                          0.451226247691842 117.940387750426 0.841843256348463 111.660304939257 0.841843256348468 111.660304939257 0.398858421735831 -67.2832716982921 
! Gamma         0                0                0                0                
! Port Impedance         50               0                50               0                
0.87125                        0.403571482564131 119.10256064049  0.864526207320624 104.262874090683 0.864526207320628 104.262874090683 0.3431039118973  -83.6475531657126 
! Gamma         0                0                0                0                
! Port Impedance         50               0                50               0                
0.8795                         0.364690064131108 122.376319922213 0.880945386043529 96.8214940612293 0.880945386043532 96.8214940612293 0.29704122748747 -103.337728558935 
! Gamma         0                0                0                0                
! Port Impedance         50               0                50               0                
0.88775                        0.339403624147887 127.601599691934 0.890788637986149 89.4252418710422 0.890788637986152 89.4252418710421 0.267932934956037 -126.34656062398 
! Gamma         0                0                0                0                
! Port Impedance         50               0                50               0                
0.896                          0.330761668338333 133.826561466402 0.894269038344959 82.1573343202537 0.894269038344962 82.1573343202537 0.261148622292399 -150.86823900557 
! Gamma         0                0                0                0                
! Port Impedance         50               0                50               0                
0.90425                        0.338278156645772 139.612267202029 0.892054427690489 75.0874927942259 0.89205442769049 75.0874927942259 0.275825923686198 -173.807882662555 
! Gamma         0                0                0                0                
! Port Impedance         50               0                50               0                
0.9125                         0.358193149628681 143.863042378683 0.885122403493787 68.2672539957268 0.885122403493788 68.2672539957268 0.305341812413187 166.788937589375 
! Gamma         0                0                0                0                
! Port Impedance         50               0                50               0                
0.92075                        0.38559334654003 146.252363732169 0.874591252075524 61.7286797238194 0.874591252075525 61.7286797238194 0.342222416929548 150.993401469514 
! Gamma         0                0                0                0                
! Port Impedance         50               0                50               0                
0.929                          0.416254578766139 146.990257813993 0.861571992331896 55.4858872862919 0.861571992331897 55.485887286292  0.381108563313292 138.068071680904 
! Gamma         0                0                0                0                
! Port Impedance         50               0                50               0                
0.93725                        0.447254246243984 146.459350248554 0.84706613136952 49.5382912911234 0.84706613136952 49.5382912911235 0.418875512153164 127.258749574513 
! Gamma         0                0                0                0                
! Port Impedance         50               0                50               0                
0.9455                         0.476827294864782 145.017755100842 0.831912491755002 43.874447544915  0.831912491755004 43.8744475449151 0.453915347419581 117.999470024035 
! Gamma         0                0                0                0                
! Port Impedance         50               0                50               0                
0.95375                        0.504027034296008 142.942030795747 0.816773270774689 38.4757000980906 0.81677327077469 38.4757000980907 0.485519066389047 109.896669889902 
! Gamma         0                0                0                0                
! Port Impedance         50               0                50               0                
0.962                          0.528426801376758 140.429447294261 0.802145262791562 33.3192082551944 0.802145262791563 33.3192082551945 0.513481497584781 102.67780064348  
! Gamma         0                0                0                0                
! Port Impedance         50               0                50               0                
0.97025                        0.549909009729318 137.615670411833 0.788383707766866 28.3802267203354 0.788383707766869 28.3802267203355 0.537867029967658 96.1500998123639 
! Gamma         0                0                0                0                
! Port Impedance         50               0                50               0                
0.9785                         0.568528449077657 134.59224297933  0.775729958016244 23.6336893398963 0.775729958016247 23.6336893398964 0.558873670978112 90.1733112078614 
! Gamma         0                0                0                0                
! Port Impedance         50               0                50               0                
0.98675                        0.58442764295483 131.420115507844 0.764337834370717 19.0552248679391 0.764337834370719 19.0552248679391 0.576755231297049 84.6424488986034 
! Gamma         0                0                0                0                
! Port Impedance         50               0                50               0                
0.995                          0.597786142408246 128.139269034347 0.75429627538717 14.6217484673123 0.754296275387172 14.6217484673123 0.591777758306948 79.4768989310727 
! Gamma         0                0                0                0                
! Port Impedance         50               0                50               0                
1.00325                        0.608791175093457 124.775330570265 0.745647582504925 10.3117567989496 0.745647582504927 10.3117567989496 0.604196136266544 74.6133955480203 
! Gamma         0                0                0                0                
! Port Impedance         50               0                50               0                
1.0115                         0.617621437419584 121.344062657352 0.738401465524803 6.10542790507378 0.738401465524804 6.10542790507374 0.614242487724469 70.0013751549943 
! Gamma         0                0                0                0                
! Port Impedance         50               0                50               0                
1.01975                        0.624438824651976 117.8544000408   0.732545479673549 1.9846003476907  0.73254547967355 1.98460034769063 0.6221213802815  65.5998177368962 
! Gamma         0                0                0                0                
! Port Impedance         50               0                50               0                
1.028                          0.629384858870238 114.310505767397 0.728052542558401 -2.06731637253344 0.728052542558402 -2.06731637253352 0.628008857378965 61.375043511365  
! Gamma         0                0                0                0                
! Port Impedance         50               0                50               0                
1.03625                        0.632579827439857 110.713167115965 0.724886174740262 -6.06546520013884 0.724886174740262 -6.06546520013888 0.632053527808152 57.2991413113024 
! Gamma         0                0                0                0                
! Port Impedance         50               0                50               0                
1.0445                         0.634123432521927 107.060745892193 0.723004007901098 -10.0236760703674 0.723004007901098 -10.0236760703674 0.634378685694435 53.3488277047618 
! Gamma         0                0                0                0                
! Port Impedance         50               0                50               0                
1.05275                        0.634096243330146 103.349826239173 0.72235999487903 -13.9545974142024 0.722359994879029 -13.9545974142024 0.635084879430945 49.504609018232  
! Gamma         0                0                0                0                
! Port Impedance         50               0                50               0                
1.061                          0.632561547137301 99.5756555796869 0.722905656926702 -17.8698160486277 0.722905656926701 -17.8698160486277 0.634252617946635 45.750163100841  
! Gamma         0                0                0                0                
! Port Impedance         50               0                50               0                
1.06925                        0.629567382580706 95.7324426988054 0.724590622773627 -21.7799605732826 0.724590622773626 -21.7799605732826 0.63194506486045 42.0718856392839 
! Gamma         0                0                0                0                
! Port Impedance         50               0                50               0                
1.0775                         0.625148653829368 91.813555842692  0.727362651927661 -25.6947858445959 0.727362651927661 -25.6947858445959 0.628210667670895 38.4585638170748 
! Gamma         0                0                0                0                
! Port Impedance         50               0                50               0                
1.08575                        0.619329294207841 87.8116494110448 0.731167288227604 -29.6232377835271 0.731167288227603 -29.6232377835271 0.623085725840495 34.9011519799715 
! Gamma         0                0                0                0                
! Port Impedance         50               0                50               0                
1.094                          0.612124489865124 83.7187379493739 0.735947254709321 -33.5734989436547 0.735947254709321 -33.5734989436546 0.616596933937477 31.3926319921061 
! Gamma         0                0                0                0                
! Port Impedance         50               0                50               0                
1.10225                        0.603542998233774 79.5262291099017 0.741641673795306 -37.5530159337126 0.741641673795306 -37.5530159337126 0.608763953010794 27.9279464930584 
! Gamma         0                0                0                0                
! Port Impedance         50               0                50               0                
1.1105                         0.593589608262384 75.2249219814524 0.748185177158731 -41.5685098313748 0.748185177158732 -41.5685098313747 0.599602070218424 24.5039971006671 
! Gamma         0                0                0                0                
! Port Impedance         50               0                50               0                
1.11875                        0.582267792921769 70.8049729692625 0.755506961029576 -45.6259701816514 0.755506961029577 -45.6259701816514 0.58912500599734 21.1197022222984 
! Gamma         0                0                0                0                
! Port Impedance         50               0                50               0                
1.127                          0.56958260079056 66.2558277459399 0.76352984990484 -49.7306325448707 0.763529849904841 -49.7306325448707 0.577347920768904 17.7761107980389 
! Gamma         0                0                0                0                
! Port Impedance         50               0                50               0                
1.13525                        0.555543823168482 61.566114372783  0.772169453305237 -53.8869396941532 0.772169453305237 -53.8869396941532 0.564290659405296 14.4765691072148 
! Gamma         0                0                0                0                
! Port Impedance         50               0                50               0                
1.1435                         0.540169456317837 56.7234893277865 0.781333525387908 -58.0984879866322 0.781333525387908 -58.0984879866323 0.549981251110216 11.2269376946557 
! Gamma         0                0                0                0                
! Port Impedance         50               0                50               0                
1.15175                        0.523489455418055 51.7144248524311 0.790921651336105 -62.3679627731314 0.790921651336104 -62.3679627731315 0.53445965468498 8.03585433856056 
! Gamma         0                0                0                0                
! Port Impedance         50               0                50               0                
1.16                           0.505549748600429 46.5239229427689 0.800825380147105 -66.6970689714354 0.800825380147105 -66.6970689714355 0.517781704471322 4.91503641615279 
! Gamma         0                0                0                0                
! Port Impedance         50               0                50               0                
1.16825                        0.486416448034504 41.1351390096068 0.81092890358006 -71.0864643505378 0.810928903580059 -71.0864643505379 0.500023171415063 1.87961136652102 
! Gamma         0                0                0                0                
! Port Impedance         50               0                50               0                
1.1765                         0.466180163735368 35.5288978567312 0.82111035174553 -75.5357035919623 0.821110351745529 -75.5357035919623 0.481283808303299 -1.05154389644826 
! Gamma         0                0                0                0                
! Port Impedance         50               0                50               0                
1.18475                        0.444960298773756 29.6830883333304 0.831243739399236 -80.0432011396325 0.831243739399235 -80.0432011396325 0.461691200364609 -3.85548654982508 
! Gamma         0                0                0                0                